 Gaussian 16, Revision C.01,
 Gaussian 16:  ES64L-G16RevC.01  3-Jul-2019

 ---------------------------------------------------------
 # opt freq b3lyp/6-31+g(d) scrf empiricaldispersion=gd3bj
 ---------------------------------------------------------

 -------------------
 Title card required
 -------------------
 Symbolic Z-matrix:
 Charge =  0 Multiplicity = 1

 SCF Done:  E(RB3LYP) =  -193.088889307     A.U. after   14 cycles
 SCF Done:  E(RB3LYP) =  -193.141494833     A.U. after   11 cycles
 SCF Done:  E(RB3LYP) =  -193.163675083     A.U. after   12 cycles
 SCF Done:  E(RB3LYP) =  -193.177996322     A.U. after   12 cycles
 SCF Done:  E(RB3LYP) =  -193.182277059     A.U. after   10 cycles
 SCF Done:  E(RB3LYP) =  -193.182523575     A.U. after   10 cycles
 SCF Done:  E(RB3LYP) =  -193.183261670     A.U. after   10 cycles
 SCF Done:  E(RB3LYP) =  -193.183511964     A.U. after    9 cycles
 SCF Done:  E(RB3LYP) =  -193.183669538     A.U. after   10 cycles
 SCF Done:  E(RB3LYP) =  -193.183710816     A.U. after    9 cycles
 SCF Done:  E(RB3LYP) =  -193.183723825     A.U. after    9 cycles
 SCF Done:  E(RB3LYP) =  -193.183724869     A.U. after    8 cycles
 SCF Done:  E(RB3LYP) =  -193.183725057     A.U. after    7 cycles
 SCF Done:  E(RB3LYP) =  -193.183725174     A.U. after    7 cycles
 SCF Done:  E(RB3LYP) =  -193.183725199     A.U. after    6 cycles
 Optimization completed.
    -- Stationary point found.
 Normal termination of Gaussian 16 at Mon Jun 24 19:22:09 2024.

 ---------------------------------------------------------------------
 #N Geom=AllCheck Guess=TCheck SCRF=Check GenChk RB3LYP/6-31+G(d) Freq
 ---------------------------------------------------------------------

 Structure from the checkpoint file:  "acetone.chk"
 -------------------
 Title card required
 -------------------
 Charge =  0 Multiplicity = 1

                         Standard orientation:
 ---------------------------------------------------------------------
 Center     Atomic      Atomic             Coordinates (Angstroms)
 Number     Number       Type             X           Y           Z
 ---------------------------------------------------------------------
      1          6           0       -1.287488   -0.613465    0.002256
      2          1           0       -1.271482   -1.370930    0.794678
      3          1           0       -1.383987   -1.152170   -0.949274
      4          1           0       -2.147260    0.047244    0.133138
      5          6           0        0.000008    0.178536    0.000016
      6          6           0        1.287508   -0.613416   -0.002266
      7          1           0        1.271422   -1.371054   -0.794531
      8          1           0        2.147296    0.047226   -0.133367
      9          1           0        1.384107   -1.151945    0.949357
     10          8           0       -0.000033    1.405212   -0.000005
 ---------------------------------------------------------------------

 SCF Done:  E(RB3LYP) =  -193.183725199     A.U. after    1 cycles

 The electronic state is 1-A.
 Alpha  occ. eigenvalues --  -19.15933 -10.29412 -10.19265 -10.19264  -1.05280
 Alpha  occ. eigenvalues --   -0.77519  -0.71363  -0.54059  -0.46518  -0.46330
 Alpha  occ. eigenvalues --   -0.46157  -0.40347  -0.40254  -0.38361  -0.36060
 Alpha  occ. eigenvalues --   -0.26546
 Alpha virt. eigenvalues --   -0.03077   0.00809   0.03503   0.04631   0.05545
 Alpha virt. eigenvalues --    0.06487   0.07363   0.08445   0.09046   0.10272
 Alpha virt. eigenvalues --    0.10515   0.12071   0.14253   0.18330   0.20379

 Mulliken charges:
               1
     1  C   -0.758679
     2  H    0.234623
     3  H    0.242755
     4  H    0.230538
     5  C    0.627266
     6  C   -0.758679
     7  H    0.234619
     8  H    0.230543
     9  H    0.242762
    10  O   -0.525747
 Sum of Mulliken charges =   0.00000

 Dipole moment (field-independent basis, Debye):
    X=              0.0002    Y=             -4.2021    Z=              0.0001  Tot=              4.2021
 Quadrupole moment (field-independent basis, Debye-Ang):
   XX=            -23.6783   YY=            -29.9651   ZZ=            -24.2787
   XY=              0.0000   XZ=              0.0972   YZ=             -0.0000

  Exact polarizability:      49.329      -0.000      58.048       0.227      -0.000      38.004
 Approx polarizability:      47.852      -0.001      65.832       0.319      -0.001      41.944

                      1                      2                      3
                      A                      A                      A
 Frequencies --     81.8679               127.3385               385.8398
 Red. masses --      1.0182                 1.1238                 2.2125
 Frc consts  --      0.0040                 0.0107                 0.1941
 IR Inten    --      0.0515                 0.0322                 2.3496

                      4                      5                      6
                      A                      A                      A
 Frequencies --    495.2715               534.0444               799.6741
 Red. masses --      2.0247                 3.6287                 3.5806
 Frc consts  --      0.2926                 0.6098                 1.3491
 IR Inten    --      1.2445                21.6533                 2.3720

                      7                      8                      9
                      A                      A                      A
 Frequencies --    897.3768               910.8853              1093.5393
 Red. masses --      1.2200                 1.5493                 1.5474
 Frc consts  --      0.5788                 0.7574                 1.0902
 IR Inten    --      0.2123                 8.6900                 0.0608

                     10                     11                     12
                      A                      A                      A
 Frequencies --   1127.2604              1251.4566              1403.7505
 Red. masses --      1.9578                 2.8070                 1.2175
 Frc consts  --      1.4657                 2.5902                 1.4135
 IR Inten    --      8.6528               101.2213                43.2976

                     13                     14                     15
                      A                      A                      A
 Frequencies --   1408.2002              1470.3953              1474.3430
 Red. masses --      1.3989                 1.0527                 1.0448
 Frc consts  --      1.6344                 1.3410                 1.3381
 IR Inten    --     83.7238                16.8022                 1.9553

                     16                     17                     18
                      A                      A                      A
 Frequencies --   1478.1332              1493.7135              1750.8326
 Red. masses --      1.0775                 1.0476                 8.9147
 Frc consts  --      1.3871                 1.3772                16.1008
 IR Inten    --     49.8866                32.2824               374.3987

                     19                     20                     21
                      A                      A                      A
 Frequencies --   3048.5552              3054.6902              3107.5556
 Red. masses --      1.0376                 1.0381                 1.0982
 Frc consts  --      5.6815                 5.7073                 6.2482
 IR Inten    --      2.5867                 3.1489                 0.9481

                     22                     23                     24
                      A                      A                      A
 Frequencies --   3113.3226              3158.4423              3159.3145
 Red. masses --      1.0985                 1.1033                 1.1034
 Frc consts  --      6.2734                 6.4849                 6.4891
 IR Inten    --     16.2122                24.3790                13.5979

 - Thermochemistry -
 -------------------
 Temperature   298.150 Kelvin.  Pressure   1.00000 Atm.
 Atom     1 has atomic number  6 and mass  12.00000

 Molecular mass:    58.04186 amu.
 Principal axes and moments of inertia in atomic units:
                           1         2         3
     Eigenvalues --   179.18401 211.84318 368.70756
           X            1.00000   0.00001   0.00065
           Y           -0.00001   1.00000   0.00000
           Z           -0.00065  -0.00000   1.00000
 This molecule is an asymmetric top.
 Rotational symmetry number  1.
 Rotational temperatures (Kelvin)      0.48338     0.40886     0.23491
 Rotational constants (GHZ):          10.07200     8.51923     4.89478
 Zero-point vibrational energy     220267.2 (Joules/Mol)
                                   52.64513 (Kcal/Mol)
 Warning -- explicit consideration of   5 degrees of freedom as
           vibrations may cause significant error
 Vibrational temperatures:    117.79   183.21   555.14   712.59   768.37
          (Kelvin)           1150.55  1291.13  1310.56  1573.36  1621.88
                             1800.57  2019.68  2026.09  2115.57  2121.25
                             2126.70  2149.12  2519.06  4386.19  4395.02
                             4471.08  4479.38  4544.29  4545.55

 Zero-point correction=                           0.083895 (Hartree/Particle)
 Thermal correction to Energy=                    0.089217
 Thermal correction to Enthalpy=                  0.090161
 Thermal correction to Gibbs Free Energy=         0.055918
 Sum of electronic and zero-point Energies=           -193.099830
 Sum of electronic and thermal Energies=              -193.094508
 Sum of electronic and thermal Enthalpies=            -193.093564
 Sum of electronic and thermal Free Energies=         -193.127807

                     E (Thermal)             CV                S
                      KCal/Mol        Cal/Mol-Kelvin    Cal/Mol-Kelvin
 Total                   55.984             16.702             72.070
 Electronic               0.000              0.000              0.000
 Translational            0.889              2.981             38.096
 Rotational               0.889              2.981             24.152
 Vibrational             54.207             10.741              9.822
 Vibration     1          0.600              1.962              3.846
 Vibration     2          0.611              1.926              2.986
 Vibration     3          0.755              1.500              1.016
 Vibration     4          0.851              1.261              0.670
 Vibration     5          0.889              1.175              0.578

 Optimization completed.
    -- Stationary point found.
 Normal termination of Gaussian 16 at Mon Jun 24 19:22:20 2024.
