 Gaussian 16, Revision C.01,
 Gaussian 16:  ES64L-G16RevC.01  3-Jul-2019

 ---------------------------------------------------------
 # b3lyp/6-31+g(d) opt freq scrf empiricaldispersion=gd3bj
 ---------------------------------------------------------

 -----
 Title
 -----
 Symbolic Z-matrix:
 Charge =  0 Multiplicity = 1

 SCF Done:  E(RB3LYP) =  -76.4311276239     A.U. after    8 cycles
 SCF Done:  E(RB3LYP) =  -76.4318075756     A.U. after    7 cycles
 SCF Done:  E(RB3LYP) =  -76.4318226612     A.U. after    7 cycles
 Optimization completed.
    -- Stationary point found.
 Normal termination of Gaussian 16 at Mon Jun 24 20:26:17 2024.

 ---------------------------------------------------------------------
 #N Geom=AllCheck Guess=TCheck SCRF=Check GenChk RB3LYP/6-31+G(d) Freq
 ---------------------------------------------------------------------

 Structure from the checkpoint file:  "H2O.chk"
 -----
 Title
 -----
 Charge =  0 Multiplicity = 1

                         Standard orientation:
 ---------------------------------------------------------------------
 Center     Atomic      Atomic             Coordinates (Angstroms)
 Number     Number       Type             X           Y           Z
 ---------------------------------------------------------------------
      1          8           0       -0.000000    0.000000    0.118576
      2          1           0       -0.000000    0.768444   -0.474303
      3          1           0       -0.000000   -0.768444   -0.474303
 ---------------------------------------------------------------------

 SCF Done:  E(RB3LYP) =  -76.4318226612     A.U. after    1 cycles

 The electronic state is 1-A1.
 Alpha  occ. eigenvalues --  -19.17147  -1.02249  -0.54066  -0.40257  -0.32486
 Alpha virt. eigenvalues --    0.03386   0.11981   0.13920   0.14624   0.20170
 Alpha virt. eigenvalues --    0.24537   0.95106   1.04114   1.10520   1.10700
 Alpha virt. eigenvalues --    1.13944   1.24056   1.70424   1.71666   1.75093

 Mulliken charges:
               1
     1  O   -0.987646
     2  H    0.493823
     3  H    0.493823
 Sum of Mulliken charges =  -0.00000

 Dipole moment (field-independent basis, Debye):
    X=             -0.0000    Y=             -0.0000    Z=             -2.5198  Tot=              2.5198
 Quadrupole moment (field-independent basis, Debye-Ang):
   XX=             -8.0067   YY=             -4.2839   ZZ=             -6.5099
   XY=              0.0000   XZ=              0.0000   YZ=             -0.0000

  Exact polarizability:       7.375       0.000       8.366       0.000       0.000       7.044
 Approx polarizability:       6.715       0.000       9.168       0.000      -0.000       7.277

                      1                      2                      3
                     A1                     A1                     B2
 Frequencies --   1662.9373              3729.0104              3833.4767
 Red. masses --      1.0822                 1.0456                 1.0821
 Frc consts  --      1.7632                 8.5665                 9.3688
 IR Inten    --    127.6502                23.3316               101.3749

 - Thermochemistry -
 -------------------
 Temperature   298.150 Kelvin.  Pressure   1.00000 Atm.
 Atom     1 has atomic number  8 and mass  15.99491

 Molecular mass:    18.01056 amu.
 Principal axes and moments of inertia in atomic units:
                           1         2         3
     Eigenvalues --     2.24698   4.25047   6.49745
           X            0.00000   0.00000   1.00000
           Y            1.00000   0.00000  -0.00000
           Z            0.00000   1.00000   0.00000
 This molecule is an asymmetric top.
 Rotational symmetry number  2.
 Rotational temperatures (Kelvin)     38.54680    20.37750    13.33045
 Rotational constants (GHZ):         803.18486   424.59816   277.76147
 Zero-point vibrational energy      55180.3 (Joules/Mol)
                                   13.18841 (Kcal/Mol)
 Vibrational temperatures:   2392.60  5365.21  5515.52
          (Kelvin)

 Zero-point correction=                           0.021017 (Hartree/Particle)
 Thermal correction to Energy=                    0.023852
 Thermal correction to Enthalpy=                  0.024796
 Thermal correction to Gibbs Free Energy=         0.003348
 Sum of electronic and zero-point Energies=            -76.410806
 Sum of electronic and thermal Energies=               -76.407971
 Sum of electronic and thermal Enthalpies=             -76.407026
 Sum of electronic and thermal Free Energies=          -76.428474

                     E (Thermal)             CV                S
                      KCal/Mol        Cal/Mol-Kelvin    Cal/Mol-Kelvin
 Total                   14.967              6.004             45.141
 Electronic               0.000              0.000              0.000
 Translational            0.889              2.981             34.608
 Rotational               0.889              2.981             10.527
 Vibrational             13.190              0.042              0.006

 Optimization completed.
    -- Stationary point found.
 Normal termination of Gaussian 16 at Mon Jun 24 20:26:22 2024.
