 Gaussian 16, Revision C.01,
 Gaussian 16:  ES64L-G16RevC.01  3-Jul-2019

 ---------------------------------------------------------
 # b3lyp/6-31+g(d) opt freq scrf empiricaldispersion=gd3bj
 ---------------------------------------------------------

 -----
 Title
 -----
 Symbolic Z-matrix:
 Charge =  1 Multiplicity = 1

 SCF Done:  E(RB3LYP) =  -76.8001952987     A.U. after    7 cycles
 SCF Done:  E(RB3LYP) =  -76.8086787638     A.U. after    7 cycles
 SCF Done:  E(RB3LYP) =  -76.8112324749     A.U. after    7 cycles
 SCF Done:  E(RB3LYP) =  -76.8112325310     A.U. after    6 cycles
 SCF Done:  E(RB3LYP) =  -76.8112431744     A.U. after    6 cycles
 Optimization completed.
    -- Stationary point found.
 Normal termination of Gaussian 16 at Mon Jun 24 19:48:37 2024.

 ---------------------------------------------------------------------
 #N Geom=AllCheck Guess=TCheck SCRF=Check GenChk RB3LYP/6-31+G(d) Freq
 ---------------------------------------------------------------------

 Structure from the checkpoint file:  "H3O.chk"
 -----
 Title
 -----
 Charge =  1 Multiplicity = 1

                         Standard orientation:
 ---------------------------------------------------------------------
 Center     Atomic      Atomic             Coordinates (Angstroms)
 Number     Number       Type             X           Y           Z
 ---------------------------------------------------------------------
      1          8           0        0.000000   -0.000362   -0.000000
      2          1           0       -0.856359    0.470801    0.000000
      3          1           0        0.022171   -0.977367   -0.000000
      4          1           0        0.834188    0.509464   -0.000000
 ---------------------------------------------------------------------

 SCF Done:  E(RB3LYP) =  -76.8112431744     A.U. after    1 cycles

 The electronic state is 1-A'.
 Alpha  occ. eigenvalues --  -19.34485  -1.20660  -0.71363  -0.71276  -0.48683
 Alpha virt. eigenvalues --   -0.03385   0.07071   0.07078   0.12208   0.15296
 Alpha virt. eigenvalues --    0.15383   0.18062   0.87958   0.88088   0.91299
 Alpha virt. eigenvalues --    0.98327   0.98429   0.98649   1.12974   1.54301

 Mulliken charges:
               1
     1  O   -0.818929
     2  H    0.606214
     3  H    0.606437
     4  H    0.606278
 Sum of Mulliken charges =   1.00000

 Dipole moment (field-independent basis, Debye):
    X=              0.0004    Y=              0.0062    Z=              0.0000  Tot=              0.0062
 Quadrupole moment (field-independent basis, Debye-Ang):
   XX=             -2.1591   YY=             -2.1373   ZZ=             -6.8292
   XY=              0.0005   XZ=             -0.0000   YZ=              0.0000

  Exact polarizability:       6.206       0.001       6.214       0.000       0.000       4.355
 Approx polarizability:       6.899       0.001       6.912      -0.000       0.000       4.380

 ******    1 imaginary frequencies (negative Signs) ******

                      1                      2                      3
                     A"                     A'                     A'
 Frequencies --   -797.3496              1591.4099              1609.2594
 Red. masses --      1.1842                 1.0803                 1.0800
 Frc consts  --      0.4436                 1.6119                 1.6479
 IR Inten    --    798.7149               166.0329               164.4570

                      4                      5                      6
                     A'                     A'                     A'
 Frequencies --   3609.2271              3756.0836              3761.6342
 Red. masses --      1.0079                 1.0979                 1.0977
 Frc consts  --      7.7353                 9.1265                 9.1516
 IR Inten    --      0.3088               673.2076               675.8326

 - Thermochemistry -
 -------------------
 Temperature   298.150 Kelvin.  Pressure   1.00000 Atm.
 Atom     1 has atomic number  8 and mass  15.99491

 Molecular mass:    19.01839 amu.
 Principal axes and moments of inertia in atomic units:
                           1         2         3
     Eigenvalues --     5.14553   5.16982  10.31536
           X            0.02149   0.99977   0.00000
           Y            0.99977  -0.02149   0.00000
           Z           -0.00000   0.00000   1.00000
 This molecule is an asymmetric top.
 Rotational symmetry number  1.
 Rotational temperatures (Kelvin)     16.83284    16.75375     8.39660
 Rotational constants (GHZ):         350.73941   349.09139   174.95673
    1 imaginary frequencies ignored.
 Zero-point vibrational energy      85698.2 (Joules/Mol)
                                   20.48235 (Kcal/Mol)
 Vibrational temperatures:   2289.68  2315.37  5192.87  5404.17  5412.15
          (Kelvin)

 Zero-point correction=                           0.032641 (Hartree/Particle)
 Thermal correction to Energy=                    0.035480
 Thermal correction to Enthalpy=                  0.036424
 Thermal correction to Gibbs Free Energy=         0.013538
 Sum of electronic and zero-point Energies=            -76.778602
 Sum of electronic and thermal Energies=               -76.775763
 Sum of electronic and thermal Enthalpies=             -76.774819
 Sum of electronic and thermal Free Energies=          -76.797705

                     E (Thermal)             CV                S
                      KCal/Mol        Cal/Mol-Kelvin    Cal/Mol-Kelvin
 Total                   22.264              6.067             48.168
 Electronic               0.000              0.000              0.000
 Translational            0.889              2.981             34.771
 Rotational               0.889              2.981             13.382
 Vibrational             20.486              0.105              0.015

 Optimization completed.
    -- Stationary point found.
 Normal termination of Gaussian 16 at Mon Jun 24 19:48:41 2024.
