 Gaussian 16, Revision C.01,
 Gaussian 16:  ES64L-G16RevC.01  3-Jul-2019

 ---------------------------------------------------------
 # opt freq b3lyp/6-31+g(d) scrf empiricaldispersion=gd3bj
 ---------------------------------------------------------

 -----------
 vcxbxcvbxcv
 -----------
 Symbolic Z-matrix:
 Charge = -1 Multiplicity = 1

 SCF Done:  E(RB3LYP) =  -75.9294946287     A.U. after    9 cycles
 SCF Done:  E(RB3LYP) =  -75.9296250802     A.U. after    7 cycles
 SCF Done:  E(RB3LYP) =  -75.9296256454     A.U. after    6 cycles
 Optimization completed.
    -- Stationary point found.
 Normal termination of Gaussian 16 at Thu Jun 27 22:53:47 2024.

 ---------------------------------------------------------------------
 #N Geom=AllCheck Guess=TCheck SCRF=Check GenChk RB3LYP/6-31+G(d) Freq
 ---------------------------------------------------------------------

 Structure from the checkpoint file:  "OH.chk"
 -----------
 vcxbxcvbxcv
 -----------
 Charge = -1 Multiplicity = 1

                         Standard orientation:
 ---------------------------------------------------------------------
 Center     Atomic      Atomic             Coordinates (Angstroms)
 Number     Number       Type             X           Y           Z
 ---------------------------------------------------------------------
      1          8           0        0.000000    0.000000    0.107999
      2          1           0        0.000000    0.000000   -0.863989
 ---------------------------------------------------------------------

 SCF Done:  E(RB3LYP) =  -75.9296256454     A.U. after    1 cycles

 The electronic state is 1-SG.
 Alpha  occ. eigenvalues --  -19.04092  -0.83784  -0.33760  -0.20092  -0.20092
 Alpha virt. eigenvalues --    0.07513   0.15025   0.16549   0.16549   0.26754
 Alpha virt. eigenvalues --    1.07453   1.20361   1.20361   1.22701   1.27602
 Alpha virt. eigenvalues --    1.85739   1.85739   1.91441   1.91441   2.57662

 Mulliken charges:
               1
     1  O   -1.390385
     2  H    0.390385
 Sum of Mulliken charges =  -1.00000

 Dipole moment (field-independent basis, Debye):
    X=              0.0000    Y=              0.0000    Z=             -2.2773  Tot=              2.2773
 Quadrupole moment (field-independent basis, Debye-Ang):
   XX=            -10.3155   YY=            -10.3155   ZZ=             -7.6076
   XY=              0.0000   XZ=              0.0000   YZ=              0.0000

  Exact polarizability:      14.051       0.000      14.051      -0.000       0.000      10.999
 Approx polarizability:      11.368      -0.000      11.368      -0.000      -0.000      11.217

                      1
                     SG
 Frequencies --   3718.6626
 Red. masses --      1.0671
 Frc consts  --      8.6941
 IR Inten    --     14.8903

 - Thermochemistry -
 -------------------
 Temperature   298.150 Kelvin.  Pressure   1.00000 Atm.
 Atom     1 has atomic number  8 and mass  15.99491

 Molecular mass:    17.00274 amu.
 Principal axes and moments of inertia in atomic units:
                           1         2         3
     Eigenvalues --     0.00000   3.19865   3.19865
           X            0.00000  -0.00000   1.00000
           Y            0.00000   1.00000   0.00000
           Z            1.00000   0.00000   0.00000
 This molecule is a prolate symmetric top.
 Rotational symmetry number  1.
 Rotational temperature (Kelvin)     27.07824
 Rotational constant (GHZ):         564.218844
 Zero-point vibrational energy      22242.5 (Joules/Mol)
                                    5.31610 (Kcal/Mol)
 Vibrational temperatures:   5350.33
          (Kelvin)

 Zero-point correction=                           0.008472 (Hartree/Particle)
 Thermal correction to Energy=                    0.010832
 Thermal correction to Enthalpy=                  0.011776
 Thermal correction to Gibbs Free Energy=        -0.007795
 Sum of electronic and zero-point Energies=            -75.921154
 Sum of electronic and thermal Energies=               -75.918793
 Sum of electronic and thermal Enthalpies=             -75.917849
 Sum of electronic and thermal Free Energies=          -75.937420

                     E (Thermal)             CV                S
                      KCal/Mol        Cal/Mol-Kelvin    Cal/Mol-Kelvin
 Total                    6.797              4.968             41.191
 Electronic               0.000              0.000              0.000
 Translational            0.889              2.981             34.437
 Rotational               0.592              1.987              6.754
 Vibrational              5.316              0.000              0.000

 Optimization completed.
    -- Stationary point found.
 Normal termination of Gaussian 16 at Thu Jun 27 22:53:51 2024.
