 Gaussian 16, Revision C.01,
 Gaussian 16:  ES64L-G16RevC.01  3-Jul-2019

 ---------------------------------------------------------
 # opt freq b3lyp/6-31+g(d) scrf empiricaldispersion=gd3bj
 ---------------------------------------------------------

 --------------
 DFGFSDGFSDGSFD
 --------------
 Symbolic Z-matrix:
 Charge =  0 Multiplicity = 1

 SCF Done:  E(RB3LYP) =  -193.137704235     A.U. after   11 cycles
 SCF Done:  E(RB3LYP) =  -193.154692902     A.U. after   11 cycles
 SCF Done:  E(RB3LYP) =  -193.155115617     A.U. after   11 cycles
 SCF Done:  E(RB3LYP) =  -193.155853163     A.U. after   11 cycles
 SCF Done:  E(RB3LYP) =  -193.155964605     A.U. after   10 cycles
 SCF Done:  E(RB3LYP) =  -193.155984501     A.U. after    9 cycles
 SCF Done:  E(RB3LYP) =  -193.155992703     A.U. after    8 cycles
 SCF Done:  E(RB3LYP) =  -193.155993491     A.U. after    8 cycles
 SCF Done:  E(RB3LYP) =  -193.155993660     A.U. after    7 cycles
 Optimization completed.
    -- Stationary point found.
 Normal termination of Gaussian 16 at Thu Jun 27 20:52:45 2024.

 ---------------------------------------------------------------------
 #N Geom=AllCheck Guess=TCheck SCRF=Check GenChk RB3LYP/6-31+G(d) Freq
 ---------------------------------------------------------------------

 Structure from the checkpoint file:  "xichun.chk"
 --------------
 DFGFSDGFSDGSFD
 --------------
 Charge =  0 Multiplicity = 1

                         Standard orientation:
 ---------------------------------------------------------------------
 Center     Atomic      Atomic             Coordinates (Angstroms)
 Number     Number       Type             X           Y           Z
 ---------------------------------------------------------------------
      1          6           0       -0.978069   -1.049057   -0.000028
      2          1           0       -2.049338   -0.862399   -0.000290
      3          1           0       -0.646987   -2.081393    0.000194
      4          6           0       -0.080622   -0.052392    0.000092
      5          6           0        1.408324   -0.219215    0.000003
      6          1           0        1.848385    0.261071    0.882603
      7          1           0        1.681773   -1.276805    0.001958
      8          1           0        1.847869    0.257529   -0.884801
      9          8           0       -0.423500    1.281396   -0.000051
     10          1           0       -1.391501    1.374809    0.000342
 ---------------------------------------------------------------------

 SCF Done:  E(RB3LYP) =  -193.155993660     A.U. after    1 cycles

 The electronic state is 1-A.
 Alpha  occ. eigenvalues --  -19.19146 -10.26009 -10.18999 -10.17544  -1.06503
 Alpha  occ. eigenvalues --   -0.78316  -0.70009  -0.59843  -0.49834  -0.46829
 Alpha  occ. eigenvalues --   -0.43878  -0.40205  -0.37909  -0.37246  -0.36914
 Alpha  occ. eigenvalues --   -0.23723
 Alpha virt. eigenvalues --    0.00259   0.01168   0.03308   0.04108   0.05802
 Alpha virt. eigenvalues --    0.06873   0.07056   0.09199   0.09351   0.10940
 Alpha virt. eigenvalues --    0.11302   0.11959   0.15340   0.18350   0.21012

 Mulliken charges:
               1
     1  C   -0.596166
     2  H    0.187988
     3  H    0.196865
     4  C    0.530154
     5  C   -0.802511
     6  H    0.224586
     7  H    0.219312
     8  H    0.224652
     9  O   -0.678955
    10  H    0.494074
 Sum of Mulliken charges =   0.00000

 Dipole moment (field-independent basis, Debye):
    X=             -0.6808    Y=             -0.4950    Z=              0.0005  Tot=              0.8417
 Quadrupole moment (field-independent basis, Debye-Ang):
   XX=            -20.5968   YY=            -26.5766   ZZ=            -27.8202
   XY=             -2.9558   XZ=             -0.0008   YZ=              0.0010

  Exact polarizability:      57.516      10.745      59.908      -0.003       0.001      40.329
 Approx polarizability:      60.114      13.844      66.768      -0.003       0.001      41.680

                      1                      2                      3
                      A                      A                      A
 Frequencies --    186.2912               415.3684               427.3424
 Red. masses --      1.0683                 2.3570                 1.0746
 Frc consts  --      0.0218                 0.2396                 0.1156
 IR Inten    --      2.9781                 2.7033               186.4976

                      4                      5                      6
                      A                      A                      A
 Frequencies --    480.7002               502.3582               723.0302
 Red. masses --      2.5447                 2.1429                 1.1712
 Frc consts  --      0.3465                 0.3186                 0.3607
 IR Inten    --     26.6748                 1.2558                 0.2176

                      7                      8                      9
                      A                      A                      A
 Frequencies --    807.0037               862.8837               982.1607
 Red. masses --      1.3756                 3.5968                 1.6358
 Frc consts  --      0.5278                 1.5779                 0.9297
 IR Inten    --    135.6323                17.4934                35.1545

                     10                     11                     12
                      A                      A                      A
 Frequencies --   1027.4390              1078.7703              1202.6343
 Red. masses --      1.5191                 1.4995                 1.5379
 Frc consts  --      0.9448                 1.0281                 1.3106
 IR Inten    --     57.1754                 0.2486               235.2713

                     13                     14                     15
                      A                      A                      A
 Frequencies --   1354.3846              1426.8898              1465.7250
 Red. masses --      2.0170                 1.2443                 1.2570
 Frc consts  --      2.1799                 1.4926                 1.5911
 IR Inten    --     48.6488                38.6236                 5.7990

                     16                     17                     18
                      A                      A                      A
 Frequencies --   1486.6735              1501.8194              1711.0097
 Red. masses --      1.0427                 1.0624                 5.1538
 Frc consts  --      1.3578                 1.4118                 8.8897
 IR Inten    --     14.6278                12.8474               270.9026

                     19                     20                     21
                      A                      A                      A
 Frequencies --   3047.9411              3098.0943              3150.7487
 Red. masses --      1.0387                 1.1008                 1.0997
 Frc consts  --      5.6855                 6.2252                 6.4321
 IR Inten    --     33.2416                21.2617                23.2799

                     22                     23                     24
                      A                      A                      A
 Frequencies --   3167.8857              3257.2921              3720.9840
 Red. masses --      1.0627                 1.1146                 1.0659
 Frc consts  --      6.2834                 6.9674                 8.6956
 IR Inten    --      4.1804                13.0050                54.7754

 - Thermochemistry -
 -------------------
 Temperature   298.150 Kelvin.  Pressure   1.00000 Atm.
 Atom     1 has atomic number  6 and mass  12.00000

 Molecular mass:    58.04186 amu.
 Principal axes and moments of inertia in atomic units:
                           1         2         3
     Eigenvalues --   179.84098 200.38653 368.98517
           X            0.99997  -0.00721  -0.00001
           Y            0.00721   0.99997   0.00001
           Z            0.00001  -0.00001   1.00000
 This molecule is an asymmetric top.
 Rotational symmetry number  1.
 Rotational temperatures (Kelvin)      0.48161     0.43223     0.23474
 Rotational constants (GHZ):          10.03521     9.00630     4.89109
 Zero-point vibrational energy     221820.1 (Joules/Mol)
                                   53.01628 (Kcal/Mol)
 Warning -- explicit consideration of   5 degrees of freedom as
           vibrations may cause significant error
 Vibrational temperatures:    268.03   597.62   614.85   691.62   722.78
          (Kelvin)           1040.28  1161.10  1241.50  1413.11  1478.26
                             1552.11  1730.32  1948.66  2052.98  2108.85
                             2138.99  2160.78  2461.76  4385.31  4457.47
                             4533.22  4557.88  4686.52  5353.67

 Zero-point correction=                           0.084487 (Hartree/Particle)
 Thermal correction to Energy=                    0.089333
 Thermal correction to Enthalpy=                  0.090278
 Thermal correction to Gibbs Free Energy=         0.057677
 Sum of electronic and zero-point Energies=           -193.071507
 Sum of electronic and thermal Energies=              -193.066660
 Sum of electronic and thermal Enthalpies=            -193.065716
 Sum of electronic and thermal Free Energies=         -193.098317

                     E (Thermal)             CV                S
                      KCal/Mol        Cal/Mol-Kelvin    Cal/Mol-Kelvin
 Total                   56.058             16.923             68.614
 Electronic               0.000              0.000              0.000
 Translational            0.889              2.981             38.096
 Rotational               0.889              2.981             24.101
 Vibrational             54.280             10.962              6.417
 Vibration     1          0.632              1.859              2.264
 Vibration     2          0.779              1.437              0.908
 Vibration     3          0.789              1.411              0.867
 Vibration     4          0.837              1.293              0.708
 Vibration     5          0.858              1.245              0.652

                           ! Non-Optimized Parameters !
 Normal termination of Gaussian 16 at Thu Jun 27 20:52:57 2024.
