 Gaussian 16, Revision C.01,
 Gaussian 16:  ES64L-G16RevC.01  3-Jul-2019

 ---------------------------------------------------------
 # b3lyp/6-31+g(d) opt freq scrf empiricaldispersion=gd3bj
 ---------------------------------------------------------

 -----
 Title
 -----
 Symbolic Z-matrix:
 Charge =  1 Multiplicity = 1

 SCF Done:  E(RB3LYP) =  -193.490453129     A.U. after   12 cycles
 SCF Done:  E(RB3LYP) =  -193.530002142     A.U. after   10 cycles
 SCF Done:  E(RB3LYP) =  -193.578306230     A.U. after   11 cycles
 SCF Done:  E(RB3LYP) =  -193.572725166     A.U. after   10 cycles
 SCF Done:  E(RB3LYP) =  -193.584657836     A.U. after   10 cycles
 SCF Done:  E(RB3LYP) =  -193.585960594     A.U. after   10 cycles
 SCF Done:  E(RB3LYP) =  -193.586065104     A.U. after    9 cycles
 SCF Done:  E(RB3LYP) =  -193.586168258     A.U. after    9 cycles
 SCF Done:  E(RB3LYP) =  -193.586194737     A.U. after    9 cycles
 SCF Done:  E(RB3LYP) =  -193.586210817     A.U. after    8 cycles
 SCF Done:  E(RB3LYP) =  -193.586232260     A.U. after    9 cycles
 SCF Done:  E(RB3LYP) =  -193.586239321     A.U. after    8 cycles
 SCF Done:  E(RB3LYP) =  -193.586242007     A.U. after    8 cycles
 SCF Done:  E(RB3LYP) =  -193.586241953     A.U. after    8 cycles
 SCF Done:  E(RB3LYP) =  -193.586242227     A.U. after    7 cycles
 SCF Done:  E(RB3LYP) =  -193.586242224     A.U. after    6 cycles
 Optimization completed.
    -- Stationary point found.
 Normal termination of Gaussian 16 at Mon Jun 24 20:39:21 2024.

 ---------------------------------------------------------------------
 #N Geom=AllCheck Guess=TCheck SCRF=Check GenChk RB3LYP/6-31+G(d) Freq
 ---------------------------------------------------------------------

 Structure from the checkpoint file:  "intermediate.chk"
 -----
 Title
 -----
 Charge =  1 Multiplicity = 1

                         Standard orientation:
 ---------------------------------------------------------------------
 Center     Atomic      Atomic             Coordinates (Angstroms)
 Number     Number       Type             X           Y           Z
 ---------------------------------------------------------------------
      1          6           0        1.220246    0.758535    0.006644
      2          1           0        1.360914    1.122636   -1.023012
      3          1           0        2.110174    0.203360    0.309074
      4          1           0        1.077901    1.643298    0.633626
      5          6           0       -0.003715   -0.062646    0.002997
      6          6           0       -1.349547    0.531935   -0.006167
      7          1           0       -1.540941    0.915119    1.007877
      8          1           0       -1.373216    1.399060   -0.673500
      9          1           0       -2.114582   -0.199563   -0.266538
     10          8           0        0.040922   -1.342357   -0.004272
     11          1           0        0.950466   -1.712000    0.025808
 ---------------------------------------------------------------------

 SCF Done:  E(RB3LYP) =  -193.586242224     A.U. after    1 cycles

 The electronic state is 1-A.
 Alpha  occ. eigenvalues --  -19.30627 -10.39400 -10.24240 -10.23661  -1.19653
 Alpha  occ. eigenvalues --   -0.86071  -0.77789  -0.70229  -0.57430  -0.54044
 Alpha  occ. eigenvalues --   -0.53492  -0.45980  -0.44641  -0.44222  -0.43782
 Alpha  occ. eigenvalues --   -0.42595
 Alpha virt. eigenvalues --   -0.12479  -0.01561   0.02322   0.03203   0.04879
 Alpha virt. eigenvalues --    0.05357   0.05706   0.07542   0.07910   0.08688
 Alpha virt. eigenvalues --    0.09705   0.10798   0.12909   0.14996   0.16971

 Mulliken charges:
               1
     1  C   -0.738036
     2  H    0.310159
     3  H    0.262303
     4  H    0.289966
     5  C    0.676470
     6  C   -0.780392
     7  H    0.302976
     8  H    0.284509
     9  H    0.272648
    10  O   -0.427826
    11  H    0.547222
 Sum of Mulliken charges =   1.00000

 Dipole moment (field-independent basis, Debye):
    X=              1.9310    Y=              0.3860    Z=              0.0536  Tot=              1.9700
 Quadrupole moment (field-independent basis, Debye-Ang):
   XX=            -15.6531   YY=            -17.5154   ZZ=            -22.2135
   XY=             -3.5159   XZ=             -0.2973   YZ=             -0.1511

  Exact polarizability:      47.447      -1.451      49.840      -0.832      -0.105      33.627
 Approx polarizability:      48.958      -1.644      57.586      -1.313      -0.139      38.434

                      1                      2                      3
                      A                      A                      A
 Frequencies --    103.0143               108.3236               399.4920
 Red. masses --      1.0988                 1.0272                 2.2447
 Frc consts  --      0.0069                 0.0071                 0.2111
 IR Inten    --      2.9870                 2.3305                 0.2119

                      4                      5                      6
                      A                      A                      A
 Frequencies --    485.5873               528.7502               739.0565
 Red. masses --      1.9183                 2.8544                 1.1429
 Frc consts  --      0.2665                 0.4702                 0.3678
 IR Inten    --      3.4870                17.6627               130.3284

                      7                      8                      9
                      A                      A                      A
 Frequencies --    845.2346               944.3696               961.7592
 Red. masses --      3.1846                 1.2784                 1.4790
 Frc consts  --      1.3405                 0.6717                 0.8060
 IR Inten    --     18.2656                46.4303                12.2084

                     10                     11                     12
                      A                      A                      A
 Frequencies --   1094.9158              1110.4753              1178.7676
 Red. masses --      1.5086                 1.9397                 1.4916
 Frc consts  --      1.0656                 1.4093                 1.2211
 IR Inten    --      0.3625                46.7326               153.8003

                     13                     14                     15
                      A                      A                      A
 Frequencies --   1381.5676              1388.4635              1426.7555
 Red. masses --      1.1561                 1.1695                 1.1362
 Frc consts  --      1.3001                 1.3284                 1.3627
 IR Inten    --     64.8246               136.5064                70.9984

                     16                     17                     18
                      A                      A                      A
 Frequencies --   1446.7916              1463.9752              1486.1465
 Red. masses --      1.2662                 1.1375                 1.4669
 Frc consts  --      1.5616                 1.4363                 1.9089
 IR Inten    --    133.1995                13.5293               162.1198

                     19                     20                     21
                      A                      A                      A
 Frequencies --   1501.3584              1601.7618              3038.5717
 Red. masses --      1.3600                 3.0986                 1.0490
 Frc consts  --      1.8061                 4.6840                 5.7063
 IR Inten    --     92.0457               141.9261                38.3924

                     22                     23                     24
                      A                      A                      A
 Frequencies --   3049.6251              3122.2314              3127.9781
 Red. masses --      1.0497                 1.0830                 1.0835
 Frc consts  --      5.7521                 6.2205                 6.2458
 IR Inten    --     20.5951                 0.9661                10.0681

                     25                     26                     27
                      A                      A                      A
 Frequencies --   3182.2605              3196.1403              3605.7345
 Red. masses --      1.1071                 1.1056                 1.0667
 Frc consts  --      6.6055                 6.6541                 8.1709
 IR Inten    --      1.6910                 2.8979               239.9916

 - Thermochemistry -
 -------------------
 Temperature   298.150 Kelvin.  Pressure   1.00000 Atm.
 Atom     1 has atomic number  6 and mass  12.00000

 Molecular mass:    59.04969 amu.
 Principal axes and moments of inertia in atomic units:
                           1         2         3
     Eigenvalues --   185.19859 214.85506 377.84180
           X            0.99558  -0.09385  -0.00177
           Y            0.09385   0.99559  -0.00115
           Z            0.00187   0.00098   1.00000
 This molecule is an asymmetric top.
 Rotational symmetry number  1.
 Rotational temperatures (Kelvin)      0.46768     0.40313     0.22923
 Rotational constants (GHZ):           9.74490     8.39981     4.77645
 Zero-point vibrational energy     254320.7 (Joules/Mol)
                                   60.78412 (Kcal/Mol)
 Warning -- explicit consideration of   5 degrees of freedom as
           vibrations may cause significant error
 Vibrational temperatures:    148.21   155.85   574.78   698.65   760.75
          (Kelvin)           1063.34  1216.10  1358.74  1383.76  1575.34
                             1597.73  1695.98  1987.77  1997.69  2052.78
                             2081.61  2106.33  2138.23  2160.12  2304.58
                             4371.83  4387.73  4492.19  4500.46  4578.56
                             4598.53  5187.85

 Zero-point correction=                           0.096866 (Hartree/Particle)
 Thermal correction to Energy=                    0.102262
 Thermal correction to Enthalpy=                  0.103206
 Thermal correction to Gibbs Free Energy=         0.068873
 Sum of electronic and zero-point Energies=           -193.489377
 Sum of electronic and thermal Energies=              -193.483980
 Sum of electronic and thermal Enthalpies=            -193.483036
 Sum of electronic and thermal Free Energies=         -193.517370

                     E (Thermal)             CV                S
                      KCal/Mol        Cal/Mol-Kelvin    Cal/Mol-Kelvin
 Total                   64.170             17.464             72.261
 Electronic               0.000              0.000              0.000
 Translational            0.889              2.981             38.148
 Rotational               0.889              2.981             24.223
 Vibrational             62.393             11.503              9.891
 Vibration     1          0.605              1.947              3.396
 Vibration     2          0.606              1.943              3.299
 Vibration     3          0.766              1.471              0.965
 Vibration     4          0.842              1.282              0.695
 Vibration     5          0.884              1.186              0.590

 Optimization completed.
    -- Stationary point found.
 Normal termination of Gaussian 16 at Mon Jun 24 20:39:42 2024.
