 Gaussian 16, Revision C.01,
 Gaussian 16:  ES64L-G16RevC.01  3-Jul-2019

 ----------------------------------------------------------------------
 # irc=(calcfc,maxpoints=20) b3lyp/6-31+g(d) scrf empiricaldispersion=g
 d3bj
 ----------------------------------------------------------------------

 ---------
 GFHDGHDHD
 ---------
 Symbolic Z-matrix:
 Charge = -1 Multiplicity = 1

 SCF Done:  E(RB3LYP) =  -269.106784633     A.U. after   13 cycles
 SCF Done:  E(RB3LYP) =  -269.107074448     A.U. after   11 cycles
 SCF Done:  E(RB3LYP) =  -269.107703322     A.U. after   11 cycles
 SCF Done:  E(RB3LYP) =  -269.108323432     A.U. after   11 cycles
 SCF Done:  E(RB3LYP) =  -269.108343587     A.U. after   10 cycles
 SCF Done:  E(RB3LYP) =  -269.108855886     A.U. after   11 cycles
 SCF Done:  E(RB3LYP) =  -269.108869350     A.U. after   10 cycles
 SCF Done:  E(RB3LYP) =  -269.109365071     A.U. after   11 cycles
 SCF Done:  E(RB3LYP) =  -269.109838215     A.U. after   10 cycles
 SCF Done:  E(RB3LYP) =  -269.110285934     A.U. after   10 cycles
 SCF Done:  E(RB3LYP) =  -269.118201085     A.U. after   10 cycles
 SCF Done:  E(RB3LYP) =  -269.118203697     A.U. after   10 cycles
 SCF Done:  E(RB3LYP) =  -269.118203631     A.U. after   10 cycles
 SCF Done:  E(RB3LYP) =  -269.118293131     A.U. after   10 cycles
 SCF Done:  E(RB3LYP) =  -269.118330478     A.U. after   10 cycles
 SCF Done:  E(RB3LYP) =  -269.118331178     A.U. after   10 cycles
 SCF Done:  E(RB3LYP) =  -269.118333307     A.U. after    9 cycles
 SCF Done:  E(RB3LYP) =  -269.118438462     A.U. after   11 cycles
 SCF Done:  E(RB3LYP) =  -269.118446625     A.U. after   10 cycles
 SCF Done:  E(RB3LYP) =  -269.118546227     A.U. after   10 cycles

                          Input orientation:
 ---------------------------------------------------------------------
 Center     Atomic      Atomic             Coordinates (Angstroms)
 Number     Number       Type             X           Y           Z
 ---------------------------------------------------------------------
      1          6           0       -1.379529    1.201019   -0.140110
      2          1           0       -0.817844    2.027083    0.311449
      3          1           0       -2.410266    1.238249    0.240311
      4          1           0       -1.430530    1.357761   -1.225336
      5          6           0       -0.770358   -0.171405    0.162445
      6          6           0        0.228374   -0.243452    1.125791
      7          1           0        0.464094    0.619507    1.746518
      8          1           0        0.596181   -1.213926    1.459578
      9          1           0        1.750863    0.136631    0.032175
     10          8           0       -1.229085   -1.162308   -0.519993
     11          8           0        2.616349    0.334824   -0.435870
     12          1           0        2.723264   -0.387438   -1.075275
 ---------------------------------------------------------------------

 Alpha  occ. eigenvalues --  -19.13828 -19.07500 -10.21955 -10.16450 -10.12799
 Alpha  occ. eigenvalues --   -0.98628  -0.95291  -0.72417  -0.65755  -0.50924
 Alpha  occ. eigenvalues --   -0.48693  -0.41789  -0.41357  -0.40630  -0.37717
 Alpha  occ. eigenvalues --   -0.35572  -0.33590  -0.30836  -0.29812  -0.21027
 Alpha  occ. eigenvalues --   -0.17652
 Alpha virt. eigenvalues --    0.01092   0.03235   0.03734   0.04979   0.06559
 Alpha virt. eigenvalues --    0.07518   0.07853   0.08085   0.09305   0.10467
 Alpha virt. eigenvalues --    0.11509   0.12295   0.13782   0.16723   0.18111

 Mulliken charges:
               1
     1  C   -0.702265
     2  H    0.193027
     3  H    0.203584
     4  H    0.200559
     5  C    0.516475
     6  C   -0.924525
     7  H    0.176116
     8  H    0.170615
     9  H    0.490305
    10  O   -0.795568
    11  O   -1.001281
    12  H    0.472958
 Sum of Mulliken charges =  -1.00000

 Dipole moment (field-independent basis, Debye):
    X=              0.4994    Y=              2.7133    Z=              0.2292  Tot=              2.7684
 Quadrupole moment (field-independent basis, Debye-Ang):
   XX=            -51.7251   YY=            -41.7771   ZZ=            -38.1948
   XY=            -11.2754   XZ=             -3.5568   YZ=              0.0356

  Exact polarizability:       0.000       0.000       0.000       0.000       0.000       0.000
 Approx polarizability:      91.002       5.222      70.496      13.782       5.623      79.939

 Normal termination of Gaussian 16 at Fri Jun 28 00:27:45 2024.
