 Gaussian 16, Revision C.01,
 Gaussian 16:  ES64L-G16RevC.01  3-Jul-2019

 ----------------------------------------------------------------------
 # opt=(calcfc,ts,noeigen,maxcycles=6000) freq b3lyp/6-31+g(d) scrf emp
 iricaldispersion=gd3bj
 ----------------------------------------------------------------------

 -----------
 fzgsdfgsfdg
 -----------
 Symbolic Z-matrix:
 Charge = -1 Multiplicity = 1

 SCF Done:  E(RB3LYP) =  -269.069562050     A.U. after   14 cycles
 SCF Done:  E(RB3LYP) =  -269.095005901     A.U. after   12 cycles
 SCF Done:  E(RB3LYP) =  -269.105653838     A.U. after   12 cycles
 SCF Done:  E(RB3LYP) =  -269.106711546     A.U. after   13 cycles
 SCF Done:  E(RB3LYP) =  -269.106469874     A.U. after   11 cycles
 SCF Done:  E(RB3LYP) =  -269.106127454     A.U. after   12 cycles
 SCF Done:  E(RB3LYP) =  -269.105635704     A.U. after   12 cycles
 SCF Done:  E(RB3LYP) =  -269.106003814     A.U. after   12 cycles
 SCF Done:  E(RB3LYP) =  -269.106025875     A.U. after   13 cycles
 SCF Done:  E(RB3LYP) =  -269.106283268     A.U. after   11 cycles
 SCF Done:  E(RB3LYP) =  -269.106782692     A.U. after   11 cycles
 SCF Done:  E(RB3LYP) =  -269.106783456     A.U. after    9 cycles
 SCF Done:  E(RB3LYP) =  -269.106744999     A.U. after   13 cycles
 SCF Done:  E(RB3LYP) =  -269.106776328     A.U. after   11 cycles
 SCF Done:  E(RB3LYP) =  -269.106781218     A.U. after   11 cycles
 SCF Done:  E(RB3LYP) =  -269.106766355     A.U. after   11 cycles
 SCF Done:  E(RB3LYP) =  -269.106783216     A.U. after   11 cycles
 SCF Done:  E(RB3LYP) =  -269.106784412     A.U. after    9 cycles
 SCF Done:  E(RB3LYP) =  -269.106784633     A.U. after    7 cycles
 Optimization completed.
    -- Stationary point found.
 Normal termination of Gaussian 16 at Fri Jun 28 00:15:27 2024.

 ---------------------------------------------------------------------
 #N Geom=AllCheck Guess=TCheck SCRF=Check GenChk RB3LYP/6-31+G(d) Freq
 ---------------------------------------------------------------------

 Structure from the checkpoint file:  "OHTS1.chk"
 -----------
 fzgsdfgsfdg
 -----------
 Charge = -1 Multiplicity = 1

                         Standard orientation:
 ---------------------------------------------------------------------
 Center     Atomic      Atomic             Coordinates (Angstroms)
 Number     Number       Type             X           Y           Z
 ---------------------------------------------------------------------
      1          6           0       -1.389586    1.158927   -0.165973
      2          1           0       -0.739899    1.981807    0.147866
      3          1           0       -2.332417    1.239469    0.391732
      4          1           0       -1.625591    1.263581   -1.230427
      5          6           0       -0.770879   -0.209239    0.104678
      6          6           0        0.354333   -0.269283    1.004516
      7          1           0        0.376587    0.520540    1.762097
      8          1           0        0.536508   -1.263744    1.423817
      9          1           0        1.435147   -0.000495    0.258237
     10          8           0       -1.223295   -1.198406   -0.520456
     11          8           0        2.540929    0.277925   -0.402669
     12          1           0        2.645384   -0.459744   -1.027657
 ---------------------------------------------------------------------

 SCF Done:  E(RB3LYP) =  -269.106784633     A.U. after    1 cycles

 The electronic state is 1-A.
 Alpha  occ. eigenvalues --  -19.11164 -19.07803 -10.25138 -10.17467 -10.13784
 Alpha  occ. eigenvalues --   -0.99886  -0.89434  -0.74130  -0.67613  -0.50716
 Alpha  occ. eigenvalues --   -0.43566  -0.43199  -0.43040  -0.40560  -0.37474
 Alpha  occ. eigenvalues --   -0.35108  -0.34805  -0.31647  -0.24097  -0.23375
 Alpha  occ. eigenvalues --   -0.19629
 Alpha virt. eigenvalues --    0.00936   0.01206   0.03754   0.05026   0.05572
 Alpha virt. eigenvalues --    0.06766   0.07859   0.08108   0.09435   0.10129
 Alpha virt. eigenvalues --    0.11434   0.12196   0.13765   0.17035   0.18420

 Mulliken charges:
               1
     1  C   -0.730687
     2  H    0.209614
     3  H    0.223608
     4  H    0.215072
     5  C    0.564099
     6  C   -0.913424
     7  H    0.190451
     8  H    0.187894
     9  H    0.395913
    10  O   -0.650552
    11  O   -1.117120
    12  H    0.425132
 Sum of Mulliken charges =  -1.00000

 Dipole moment (field-independent basis, Debye):
    X=             -5.1893    Y=              1.7167    Z=              1.5868  Tot=              5.6916
 Quadrupole moment (field-independent basis, Debye-Ang):
   XX=            -60.0849   YY=            -40.2260   ZZ=            -36.2347
   XY=            -11.3539   XZ=             -1.5976   YZ=              0.1930

  Exact polarizability:     104.801       5.939      71.526       3.304       1.691      68.801
 Approx polarizability:     104.398       9.817      73.695       4.588       5.585      70.160

 ******    1 imaginary frequencies (negative Signs) ******

                      1                      2                      3
                      A                      A                      A
 Frequencies --  -1278.1410                60.3434                80.0580
 Red. masses --      1.1001                 1.1250                 3.0860
 Frc consts  --      1.0589                 0.0024                 0.0117
 IR Inten    --   9320.2508                 0.8609                22.3252

                      4                      5                      6
                      A                      A                      A
 Frequencies --    104.4155               148.7665               419.2697
 Red. masses --      4.9979                 1.1121                 2.1648
 Frc consts  --      0.0321                 0.0145                 0.2242
 IR Inten    --      5.3427               201.0281                 4.6771

                      7                      8                      9
                      A                      A                      A
 Frequencies --    480.0006               487.6636               529.7799
 Red. masses --      1.0556                 4.9028                 2.8767
 Frc consts  --      0.1433                 0.6870                 0.4757
 IR Inten    --     54.4521                12.1918                24.3422

                     10                     11                     12
                      A                      A                      A
 Frequencies --    584.8214               715.7866               836.8101
 Red. masses --      2.1578                 1.2693                 3.1549
 Frc consts  --      0.4348                 0.3832                 1.3017
 IR Inten    --      2.6126                41.7608                12.5975

                     13                     14                     15
                      A                      A                      A
 Frequencies --    900.8463               980.0131              1058.5192
 Red. masses --      1.2770                 1.4213                 1.8428
 Frc consts  --      0.6106                 0.8043                 1.2166
 IR Inten    --     17.8592                 4.7935                 3.6725

                     16                     17                     18
                      A                      A                      A
 Frequencies --   1097.9032              1293.1325              1364.8212
 Red. masses --      1.5527                 2.2351                 1.1292
 Frc consts  --      1.1028                 2.2021                 1.2393
 IR Inten    --     14.6246                74.4948                70.4774

                     19                     20                     21
                      A                      A                      A
 Frequencies --   1400.0331              1478.3076              1481.8973
 Red. masses --      1.2983                 1.0990                 1.2351
 Frc consts  --      1.4994                 1.4151                 1.5980
 IR Inten    --     61.3465                53.7316                24.9744

                     22                     23                     24
                      A                      A                      A
 Frequencies --   1494.5819              1569.4621              1629.6901
 Red. masses --      1.0999                 1.0522                 6.5459
 Frc consts  --      1.4475                 1.5271                10.2431
 IR Inten    --     21.6081                34.8663               559.0671

                     25                     26                     27
                      A                      A                      A
 Frequencies --   3041.0188              3069.5784              3103.6181
 Red. masses --      1.0385                 1.0558                 1.0964
 Frc consts  --      5.6585                 5.8613                 6.2224
 IR Inten    --     22.7158                28.2269                24.4231

                     28                     29                     30
                      A                      A                      A
 Frequencies --   3130.8877              3137.3135              3727.0986
 Red. masses --      1.1053                 1.1078                 1.0665
 Frc consts  --      6.3835                 6.4242                 8.7286
 IR Inten    --     24.1440                81.8402                 0.2382

 - Thermochemistry -
 -------------------
 Temperature   298.150 Kelvin.  Pressure   1.00000 Atm.
 Atom     1 has atomic number  6 and mass  12.00000

 Molecular mass:    75.04460 amu.
 Principal axes and moments of inertia in atomic units:
                           1         2         3
     Eigenvalues --   277.64279 732.74392 814.61198
           X            0.99801  -0.06298   0.00298
           Y            0.06305   0.99685  -0.04802
           Z            0.00006   0.04811   0.99884
 This molecule is an asymmetric top.
 Rotational symmetry number  1.
 Rotational temperatures (Kelvin)      0.31196     0.11820     0.10633
 Rotational constants (GHZ):           6.50023     2.46299     2.21546
    1 imaginary frequencies ignored.
 Zero-point vibrational energy     235702.8 (Joules/Mol)
                                   56.33433 (Kcal/Mol)
 Warning -- explicit consideration of   9 degrees of freedom as
           vibrations may cause significant error
 Vibrational temperatures:     86.82   115.19   150.23   214.04   603.24
          (Kelvin)            690.61   701.64   762.24   841.43  1029.86
                             1203.98  1296.12  1410.02  1522.97  1579.64
                             1860.53  1963.67  2014.34  2126.95  2132.12
                             2150.37  2258.11  2344.76  4375.35  4416.44
                             4465.41  4504.65  4513.89  5362.46

 Zero-point correction=                           0.089774 (Hartree/Particle)
 Thermal correction to Energy=                    0.097074
 Thermal correction to Enthalpy=                  0.098018
 Thermal correction to Gibbs Free Energy=         0.058018
 Sum of electronic and zero-point Energies=           -269.017010
 Sum of electronic and thermal Energies=              -269.009711
 Sum of electronic and thermal Enthalpies=            -269.008767
 Sum of electronic and thermal Free Energies=         -269.048766

                     E (Thermal)             CV                S
                      KCal/Mol        Cal/Mol-Kelvin    Cal/Mol-Kelvin
 Total                   60.915             23.605             84.186
 Electronic               0.000              0.000              0.000
 Translational            0.889              2.981             38.862
 Rotational               0.889              2.981             26.608
 Vibrational             59.137             17.643             18.717
 Vibration     1          0.597              1.973              4.446
 Vibration     2          0.600              1.963              3.889
 Vibration     3          0.605              1.946              3.370
 Vibration     4          0.618              1.904              2.688
 Vibration     5          0.782              1.428              0.894
 Vibration     6          0.836              1.294              0.710
 Vibration     7          0.844              1.277              0.690
 Vibration     8          0.885              1.184              0.588
 Vibration     9          0.942              1.064              0.477

 Optimization completed.
    -- Stationary point found.
 Normal termination of Gaussian 16 at Fri Jun 28 00:15:47 2024.
